% Model:              open2.mph
% Version:            COMSOL 4.3.2.189
% Date:               Feb 20 2014, 09:46
% Table:              Probe Table 1 - 
% D                      Electric energy density (J/m), Domain Probe 1Magnetic energy density (J/m), Domain Probe 2
0.0010                   5.1516146101280264E-11   1.424920083218591E-7
0.0060                   5.613331560139278E-12    4.0805075360069637E-7
0.011                    4.502681332869789E-12    4.811056920340798E-7
0.016                    4.0140978331116065E-12   5.208977346080765E-7
0.021                    3.7212969007250764E-12   5.472266758977277E-7
0.026000000000000002     3.5196843662134035E-12   5.663882970539269E-7
0.031                    3.3692079519189645E-12   5.811853459084386E-7
0.036000000000000004     3.2509611978198714E-12   5.930452781297016E-7
0.041                    3.154535565290644E-12    6.028357386252483E-7
0.046                    3.0738037455165925E-12   6.110690900588314E-7
0.051000000000000004     3.0046959771824934E-12   6.181301631987384E-7
0.056                    2.944633432593613E-12    6.242458461563693E-7
0.061                    2.8916560522410366E-12   6.296127941890662E-7
0.066                    2.844413734305031E-12    6.343585671808631E-7
0.07100000000000001      2.801893786943591E-12    6.385892115719264E-7
0.076                    2.763300985150597E-12    6.42379910475612E-7
0.081                    2.728058305198099E-12    6.45791885379241E-7
0.08600000000000001      2.695613984034841E-12    6.488979571465145E-7
0.091                    2.665665225555535E-12    6.517128459227821E-7
0.096                    2.637808873437835E-12    6.542823044675121E-7
0.101                    2.6118109415665238E-12   6.566376362127495E-7
0.106                    2.587461931578674E-12    6.588046523886626E-7
0.111                    2.5646083823094814E-12   6.607886042448555E-7
0.116                    2.5430336737370285E-12   6.626253636120196E-7
0.121                    2.5226295486771777E-12   6.643206850387054E-7
0.126                    2.503311496197674E-12    6.658902717365193E-7
0.131                    2.4849107805117975E-12   6.67344401501643E-7
0.136                    2.4673917136180096E-12   6.686916427588534E-7
0.14100000000000001      2.4506630631683213E-12   6.699488549895962E-7
0.146                    2.4346588987956568E-12   6.711139641862343E-7
0.151                    2.4193461739930934E-12   6.721842496915147E-7
0.156                    2.4046139336340087E-12   6.731914653733295E-7
0.161                    2.3904681276714987E-12   6.741270201764104E-7
0.166                    2.376846133717163E-12    6.749966883792345E-7
0.171                    2.3636776700807163E-12   6.758081699190138E-7
0.17600000000000002      2.3510010384555808E-12   6.765546006770556E-7
0.181                    2.3387265515455386E-12   6.77251246589048E-7
0.186                    2.3268194013992613E-12   6.77908396435301E-7
0.191                    2.315327635330894E-12    6.785013726528675E-7
0.196                    2.3041488314103094E-12   6.790544682684183E-7
