% Model:              open2_dd.mph
% Version:            COMSOL 4.3.2.189
% Date:               Feb 20 2014, 02:03
% Table:              Probe Table 1 - 
% d                      Electric energy density (J/m), Domain Probe 1Magnetic energy density (J/m), Domain Probe 2
0.0010                   2.323521606070091E-12    1.926948497267924E-7
0.0020                   2.624941075863814E-12    1.739957315035034E-7
0.0030                   2.841559751494171E-12    1.645669598683331E-7
0.0040                   3.0190213863511655E-12   1.5647827860221947E-7
0.0050                   3.172410741569626E-12    1.5025377736224558E-7
0.0060                   3.3101084766365424E-12   1.4504531117443688E-7
0.0070                   3.4361491875775853E-12   1.4062970675134438E-7
0.0080                   3.553462478502634E-12    1.3676687410487585E-7
0.009000000000000001     3.6637938526178355E-12   1.333455069745161E-7
0.010000000000000002     3.7685215400339655E-12   1.302665007825956E-7
0.011                    3.868544119635942E-12    1.274678320996075E-7
0.012                    3.9646304033480306E-12   1.2490024594371824E-7
0.013000000000000001     4.0574431187137334E-12   1.2252598888026452E-7
0.014000000000000002     4.147236623193237E-12    1.2032316909476082E-7
0.015                    4.234587438459894E-12    1.1826019918238636E-7
0.016                    4.319718455241596E-12    1.1632420889932347E-7
0.017                    4.402938128491261E-12    1.1449777464786816E-7
0.018000000000000002     4.4843247487378936E-12   1.1277063092315868E-7
0.019000000000000003     4.564228272995252E-12    1.1113125520756785E-7
0.02                     4.642733148944887E-12    1.095697258495205E-7
0.021                    4.720045035555719E-12    1.0807848632375653E-7
0.022000000000000002     4.796145636222714E-12    1.0665362773120608E-7
0.023                    4.871321346420705E-12    1.0528608642411655E-7
0.024                    4.94555822814899E-12     1.0397282616298765E-7
0.025                    5.018967931571587E-12    1.0270884417841817E-7
0.026000000000000002     5.0915578764578305E-12   1.01492233438566E-7
0.027000000000000003     5.163541215152051E-12    1.0031677107755792E-7
0.028                    5.234907678901564E-12    9.917998470451517E-8
0.029                    5.30573067922046E-12     9.808033591966566E-8
0.030000000000000002     5.375981677748714E-12    9.701543888082406E-8
0.031                    5.445868550329844E-12    9.598117960359527E-8
0.032                    5.5152986787738405E-12   9.497718877363778E-8
0.033                    5.58434961643082E-12     9.400211174912302E-8
0.034                    5.6530598083575955E-12   9.305277807964449E-8
0.035                    5.721531317571696E-12    9.212841960224956E-8
0.036000000000000004     5.789711244330851E-12    9.122750744973415E-8
0.037000000000000005     5.857636763876781E-12    9.034966384365116E-8
0.038                    5.9254300516760175E-12   8.949165572965733E-8
0.039                    5.992972161868353E-12    8.865524577477225E-8
0.04                     6.060445357691869E-12    8.783659705104178E-8
0.041                    6.1277916977546245E-12   8.70359776142628E-8
0.042                    6.195042799579421E-12    8.625330192126995E-8
0.043000000000000003     6.262180988247672E-12    8.548699239079821E-8
0.044000000000000004     6.329317025809639E-12    8.473622151729917E-8
0.045                    6.396427822679885E-12    8.400010408162015E-8
0.046                    6.463552572424283E-12    8.327872106909304E-8
0.047                    6.530646472589764E-12    8.257112582098455E-8
0.048                    6.597834785551054E-12    8.187646799384828E-8
0.049                    6.6650561984241E-12      8.11941234163446E-8
0.05                     6.732310949709041E-12    8.052494597809585E-8
