% Model:              open2.mph
% Version:            COMSOL 4.3.2.189
% Date:               Feb 20 2014, 02:00
% Table:              Probe Table 1 - 
% D                      Electric energy density (J/m), Domain Probe 1Magnetic energy density (J/m), Domain Probe 2
0.0010                   5.1516146101280264E-11   3.5623002080464776E-8
0.0060                   5.6133315601392814E-12   1.0201268840017433E-7
0.011                    4.502681332869797E-12    1.202764230085197E-7
0.016                    4.0140978331116065E-12   1.3022443365201912E-7
0.021                    3.7212969007250764E-12   1.3680666897443192E-7
0.026000000000000002     3.519684366213399E-12    1.4159707426348175E-7
0.031                    3.369207951918965E-12    1.4529633647710958E-7
0.036000000000000004     3.2509611978198714E-12   1.482613195324254E-7
0.041                    3.154535565290644E-12    1.5070893465631207E-7
0.046                    3.0738037455165912E-12   1.527672725147071E-7
0.051000000000000004     3.0046959771824894E-12   1.545325407996851E-7
0.056                    2.9446334325936114E-12   1.5606146153909278E-7
0.061                    2.8916560522410366E-12   1.5740319854726656E-7
0.066                    2.8444137343050336E-12   1.5858964179521532E-7
0.07100000000000001      2.801893786943591E-12    1.596473028929816E-7
0.076                    2.763300985150598E-12    1.6059497761890282E-7
0.081                    2.728058305198101E-12    1.6144797134481047E-7
0.08600000000000001      2.695613984034841E-12    1.6222448928662863E-7
0.091                    2.665665225555535E-12    1.6292821148069552E-7
0.096                    2.637808873437835E-12    1.6357057611687803E-7
0.101                    2.6118109415665238E-12   1.6415940905318738E-7
0.106                    2.587461931578674E-12    1.6470116309716566E-7
0.111                    2.5646083823094814E-12   1.6519715106121387E-7
0.116                    2.5430336737370285E-12   1.656563409030049E-7
0.121                    2.5226295486771777E-12   1.6608017125967635E-7
0.126                    2.503311496197674E-12    1.6647256793412983E-7
0.131                    2.4849107805117975E-12   1.6683610037541074E-7
0.136                    2.4673917136180128E-12   1.671729106897115E-7
0.14100000000000001      2.4506630631683213E-12   1.6748721374739906E-7
0.146                    2.4346588987956568E-12   1.6777849104655859E-7
0.151                    2.4193461739930934E-12   1.6804606242287867E-7
0.156                    2.4046139336340107E-12   1.682978663433316E-7
0.161                    2.3904681276714987E-12   1.685317550441026E-7
0.166                    2.3768461337171622E-12   1.6874917209480902E-7
0.171                    2.3636776700807163E-12   1.6895204247975346E-7
0.17600000000000002      2.351001038455578E-12    1.6913865016926327E-7
0.181                    2.3387265515455386E-12   1.69312811647262E-7
0.186                    2.326819401399257E-12    1.6947709910882496E-7
0.191                    2.3153276353308924E-12   1.6962534316321654E-7
0.196                    2.3041488314103094E-12   1.6976361706710457E-7
