% Model:              PPLATE.mph
% Version:            COMSOL 4.3.2.189
% Date:               Feb 20 2014, 02:08
% Table:              Probe Table 1 - 
% W                      Magnetic energy density (J/m), Domain Probe 2Electric energy density (J/m), Domain Probe 1
0.0010                   2.5881421011591725E-7    1.0527181063594706E-11
0.0060                   8.16430609648022E-8      3.4326972857826397E-11
0.011                    4.891855162106213E-8     5.7202114089632515E-11
0.016                    3.499842012295561E-8     7.981587983487411E-11
0.021                    2.727954701598459E-8     1.0229080516919693E-10
0.026000000000000002     2.2354994100237583E-8    1.2474260516062115E-10
0.031                    1.894538290509592E-8     1.471055337015326E-10
0.036000000000000004     1.6441569948193656E-8    1.694216161327384E-10
0.041                    1.4520715929219644E-8    1.9178868976230117E-10
0.046                    1.3006419921834209E-8    2.1404112611685194E-10
0.051000000000000004     1.1778209657045744E-8    2.3629986903255974E-10
0.056                    1.0761793273437051E-8    2.585654407661893E-10
0.061                    9.906865086779677E-9     2.8085958871248964E-10
0.066                    9.17842038801468E-9      3.031163709401274E-10
0.07100000000000001      8.550880568454028E-9     3.25281404196246E-10
0.076                    8.002631360429887E-9     3.475940288302674E-10
0.081                    7.521217856000665E-9     3.6975362916934086E-10
0.08600000000000001      7.094319487553563E-9     3.9198353855772166E-10
0.091                    6.713300166464882E-9     4.1419524652384576E-10
0.096                    6.3712955320646054E-9    4.364214557047868E-10
0.101                    6.062777788053663E-9     4.585654783341966E-10
0.106                    5.782519184137042E-9     4.807688331451297E-10
0.111                    5.526813793114133E-9     5.029832757279562E-10
0.116                    5.2930084982843365E-9    5.252134498660209E-10
0.121                    5.078218413706835E-9     5.473824695551905E-10
0.126                    4.880432152081981E-9     5.69515589477996E-10
0.131                    4.69700050805309E-9      5.918001741481486E-10
0.136                    4.5272377159249914E-9    6.13920028519712E-10
0.14100000000000001      4.369128084263974E-9     6.361388121442012E-10
0.146                    4.221805237511944E-9     6.583154731675678E-10
0.151                    4.084332612805599E-9     6.804237098626504E-10
0.156                    3.9552626097707135E-9    7.026275427625948E-10
0.161                    3.834098019280962E-9     7.247999031106158E-10
0.166                    3.720124350675934E-9     7.470276787042751E-10
0.171                    3.6128293690640146E-9    7.691903190436024E-10
0.17600000000000002      3.5114668622423602E-9    7.913943474252335E-10
0.181                    3.4158923607891457E-9    8.134873810004881E-10
0.186                    3.325069831904153E-9     8.357074501478495E-10
0.191                    3.2391307840674914E-9    8.578469762617366E-10
0.196                    3.157452670083242E-9     8.800399122869671E-10
