% Model:              PPLATE_2.mph
% Version:            COMSOL 4.3.2.189
% Date:               Feb 20 2014, 02:11
% Table:              Probe Table 1 - 
% b                      Magnetic energy density (J/m), Domain Probe 2Electric energy density (J/m), Domain Probe 1
0.0010                   3.0951545802389023E-9    8.977090425042834E-10
0.0060                   1.755010088410475E-8     1.5744716658473107E-10
0.011                    3.0666202782103474E-8    8.950365815875062E-11
0.016                    4.267119681411144E-8     6.387491641267047E-11
0.021                    5.375692359861723E-8     5.028951070288435E-11
0.026000000000000002     6.391352583035047E-8     4.20050969922333E-11
0.031                    7.347324782354913E-8     3.6204983371376994E-11
0.036000000000000004     8.229490059704157E-8     3.203964797468257E-11
0.041                    9.040344820885429E-8     2.8958294852972023E-11
0.046                    9.811467124731745E-8     2.643737578083396E-11
0.051000000000000004     1.0581337179576819E-7    2.403804748112067E-11
0.056                    1.1179076700789039E-7    2.2781815351260394E-11
0.061                    1.182412256827665E-7     2.133589600028031E-11
0.066                    1.2421680131739756E-7    2.0082120553965712E-11
0.07100000000000001      1.2988807231928293E-7    1.9027991670071544E-11
0.076                    1.3527983717144796E-7    1.8071234688720052E-11
0.081                    1.4106099215974593E-7    1.6994118550549066E-11
0.08600000000000001      1.4581455157423143E-7    1.6274218719459538E-11
0.091                    1.5024615981245714E-7    1.565003147450485E-11
0.096                    1.5449224477252734E-7    1.50674031767859E-11
0.101                    1.5848939247766023E-7    1.4547232210859532E-11
0.106                    1.6225928691567907E-7    1.407634004729327E-11
0.111                    1.6562999380470706E-7    1.3672977701220907E-11
0.116                    1.6906540666015826E-7    1.3257665386965714E-11
0.121                    1.7234019166888765E-7    1.2873203996512742E-11
0.126                    1.7538757137035805E-7    1.2527596296775082E-11
0.131                    1.7829454494595913E-7    1.220492534096503E-11
0.136                    1.8104273279867686E-7    1.1906869523650413E-11
0.14100000000000001      1.8367547974416688E-7    1.162340454573078E-11
0.146                    1.8616457435027887E-7    1.1359497727818213E-11
0.151                    1.8903578768355902E-7    1.1020594594150108E-11
0.156                    1.9128295551508886E-7    1.079043043435379E-11
0.161                    1.9338900817490186E-7    1.057817819705459E-11
0.166                    1.951919582559869E-7     1.0399716364171197E-11
0.171                    1.971336985999649E-7     1.0199978916493738E-11
0.17600000000000002      1.9892570436449588E-7    1.0020291806013177E-11
0.181                    2.006940817318463E-7     9.83763806140619E-12
0.186                    2.023345054263732E-7     9.671050426025903E-12
0.191                    2.039025491271291E-7     9.509925494429986E-12
0.196                    2.0539707166555004E-7    9.354789113245923E-12
