% Model:              WOFP.mph
% Version:            COMSOL 4.3.2.189
% Date:               Feb 20 2014, 01:50
% Table:              Probe Table 1 - 
% H                      Electric energy density (J/m), Domain Probe 1Magnetic energy density (J/m), Domain Probe 2
0.0020                   1.3892903551838087E-11   4.6406957256737224E-8
0.0030                   1.1470419484583901E-11   5.7982570865768455E-8
0.0040                   1.0256683641593267E-11   6.732123245358479E-8
0.0050                   9.446276241179488E-12    7.299711942041343E-8
0.0060                   8.844561326655616E-12    7.788952497133626E-8
0.0070                   8.440638960182019E-12    8.159030533875648E-8
0.0080                   8.080596478295776E-12    8.518691695168606E-8
0.009000000000000001     7.797370704642062E-12    8.825886574063624E-8
0.01                     7.641969061590923E-12    9.017596738654891E-8
0.011000000000000001     7.393185579121467E-12    9.306848238516158E-8
0.012                    7.21196835515466E-12     9.539075874710768E-8
0.013                    7.0599904862001664E-12   9.742822013403389E-8
0.014                    6.9258634398073905E-12   9.932180982127874E-8
0.015000000000000001     6.806795277033188E-12    1.0103679277623451E-7
0.016                    6.702837609377514E-12    1.0260261659435618E-7
0.017                    6.6044649990928074E-12   1.0412987486155312E-7
0.018000000000000002     6.513345230343048E-12    1.0557830731410107E-7
0.019000000000000003     6.433555566941243E-12    1.0688605276013242E-7
0.020000000000000004     6.3570462357446695E-12   1.0816775567957148E-7
