% Model:              WOFP_2.mph
% Version:            COMSOL 4.3.2.189
% Date:               Feb 20 2014, 01:48
% Table:              Probe Table 1 - 
% d                      Electric energy density (J/m), Domain Probe 1Magnetic energy density (J/m), Domain Probe 2
0.0010                   6.3554949512123625E-12   1.0819308568840362E-7
0.0020                   7.54396489503367E-12     9.211746169051724E-8
0.0030                   8.475904379138706E-12    8.207706227922458E-8
0.0040                   9.29296522755802E-12     7.492677555904886E-8
0.0050                   1.0046270953531248E-11   6.938827785719031E-8
0.0060                   1.0761446636209421E-11   6.48750892260419E-8
0.0070                   1.1453657117903865E-11   6.107199687901332E-8
0.0080                   1.213273321867533E-11    5.7792045435630325E-8
0.009000000000000001     1.2806018601634069E-11   5.4912984091601344E-8
0.010000000000000002     1.3479012054107792E-11   5.2352309686365376E-8
0.011                    1.4156499821566503E-11   5.0050220671843815E-8
0.012                    1.4842665922955327E-11   4.796298892523627E-8
0.013000000000000001     1.5541501950269924E-11   4.605679907614935E-8
0.014000000000000002     1.625645920620254E-11    4.4306509228252714E-8
0.015                    1.6991651589517455E-11   4.269078110094689E-8
0.016                    1.7750809451140886E-11   4.1193292853336246E-8
0.017                    1.8538174467632265E-11   3.980026133301063E-8
0.018000000000000002     1.9358169377454043E-11   3.850074567664371E-8
0.019000000000000003     2.0216171968821462E-11   3.728470847015989E-8
0.02                     2.1118478852097394E-11   3.614375933818213E-8
