% Model:              WOFP.mph
% Version:            COMSOL 4.3.2.189
% Date:               Feb 20 2014, 10:15
% Table:              Probe Table 1 - 
% H                      Electric energy density (J/m), Domain Probe 1Magnetic energy density (J/m), Domain Probe 2
0.0020                   1.3892903551838093E-11   1.8562782902694887E-7
0.0030                   1.1470419484583901E-11   2.3193028346307382E-7
0.0040                   1.0256683641593267E-11   2.6928492981433914E-7
0.0050                   9.446276241179488E-12    2.919884776816537E-7
0.0060                   8.844561326655612E-12    3.1155809988534505E-7
0.0070                   8.440638960182019E-12    3.263612213550259E-7
0.0080                   8.080596478295776E-12    3.4074766780674423E-7
0.009000000000000001     7.79737070464206E-12     3.530354629625447E-7
0.01                     7.641969061590923E-12    3.6070386954619564E-7
0.011000000000000001     7.393185579121467E-12    3.722739295406463E-7
0.012                    7.21196835515466E-12     3.8156303498843073E-7
0.013                    7.0599904862001664E-12   3.8971288053613557E-7
0.014                    6.925863439807385E-12    3.9728723928511497E-7
0.015000000000000001     6.80679527703319E-12     4.041471711049385E-7
0.016                    6.702837609377512E-12    4.104104663774244E-7
0.017                    6.6044649990928074E-12   4.1651949944621247E-7
0.018000000000000002     6.51334523034305E-12     4.2231322925640427E-7
0.019000000000000003     6.433555566941239E-12    4.2754421104052963E-7
0.020000000000000004     6.3570462357446695E-12   4.326710227182859E-7
