% Model:              WOFP_2.mph
% Version:            COMSOL 4.3.2.189
% Date:               Feb 20 2014, 10:25
% Table:              Probe Table 1 - 
% d                      Electric energy density (J/m), Domain Probe 1Magnetic energy density (J/m), Domain Probe 2
0.0010                   6.3554949512123625E-12   4.327723427536145E-7
0.0020                   7.54396489503367E-12     3.6846984676206897E-7
0.0030                   8.475904379138706E-12    3.2830824911689834E-7
0.0040                   9.29296522755802E-12     2.9970710223619545E-7
0.0050                   1.0046270953531248E-11   2.7755311142876125E-7
0.0060                   1.0761446636209421E-11   2.595003569041676E-7
0.0070                   1.1453657117903865E-11   2.4428798751605326E-7
0.0080                   1.2132733218675328E-11   2.311681817425213E-7
0.009000000000000001     1.2806018601634056E-11   2.1965193636640495E-7
0.010000000000000002     1.3479012054107792E-11   2.094092387454615E-7
0.011                    1.4156499821566503E-11   2.0020088268737526E-7
0.012                    1.4842665922955327E-11   1.9185195570094508E-7
0.013000000000000001     1.5541501950269924E-11   1.842271963045974E-7
0.014000000000000002     1.625645920620254E-11    1.7722603691301086E-7
0.015                    1.6991651589517455E-11   1.7076312440378757E-7
0.016                    1.7750809451140886E-11   1.6477317141334499E-7
0.017                    1.853817446763226E-11    1.5920104533204274E-7
0.018000000000000002     1.9358169377454043E-11   1.5400298270657484E-7
0.019000000000000003     2.0216171968821455E-11   1.4913883388063932E-7
0.02                     2.111847885209741E-11    1.4457503735272862E-7
